                               Psi4 1.5 release

  ==> Input File <==

--------------------------------------------------------------------------

molecule = {
  0 1
  C   0.500   0.500   0.500
  C   0.500  -0.500   0.500
  C  -0.500   0.500   0.500
  C  -0.500  -0.500   0.500
  C   0.500   0.500  -0.500
  C   0.500  -0.500  -0.500
  C  -0.500   0.500  -0.500
  C  -0.500  -0.500  -0.500
}

set {
basis sto-3g
scf_type pk
e_convergence 10
}

energy("scf")

--------------------------------------------------------------------------

    Molecular point group: d2h

    Geometry (in Angstrom), charge = 0, multiplicity = 1:

       Center              X                  Y                   Z               Mass
    ------------   -----------------  -----------------  -----------------  -----------------
         C            0.707106781187     0.500000000000     0.000000000000    12.000000000000
         C            0.707106781187    -0.500000000000     0.000000000000    12.000000000000
         C           -0.000000000000     0.500000000000     0.707106781187    12.000000000000
         C            0.000000000000    -0.500000000000     0.707106781187    12.000000000000
         C           -0.000000000000     0.500000000000    -0.707106781187    12.000000000000
         C            0.000000000000    -0.500000000000    -0.707106781187    12.000000000000
         C           -0.707106781187     0.500000000000     0.000000000000    12.000000000000
         C           -0.707106781187    -0.500000000000     0.000000000000    12.000000000000

  Charge       = 0
  Multiplicity = 1
  Basis Set: STO-3G
    Blend: STO-3G

    Orbital Energies [Eh]
    ---------------------

    Doubly Occupied:

       1Ag   -11.441549     1B1u  -11.424113     1B2u  -11.424113
       1B3u  -11.424113     2Ag   -11.407139     1B3g  -11.407139
       1B1g  -11.407139     2B2u  -11.391497     3Ag    -2.591107
       2B3u   -1.654123     2B1u   -1.654123     3B2u   -1.654123
       4Ag    -1.190176     1B2g   -1.190176     5Ag    -0.960779
       6Ag    -0.830375     2B3g   -0.830375     2B1g   -0.830375
       3B1u   -0.661906     3B3u   -0.661906     1Au    -0.661906
       4B2u   -0.550413     4B1u   -0.550413     4B3u   -0.550413

  @RHF Final Energy:  -292.81181539250065

   => Energetics <=

    Nuclear Repulsion Energy =            434.2473531909730582
    One-Electron Energy =               -1237.4193541324605121
    Two-Electron Energy =                 510.3601855489868058
    Total Energy =                       -292.8118153925006482

  Dipole Moment: [D]
     X:    -0.0000      Y:     0.0000      Z:    -0.0000     Total:     0.0000

*** Psi4 exiting successfully. Buy a developer a beer!
